<tripinfos xmlns:xsi="http://www.w3.org/2001/XMLSchema-instance" xsi:noNamespaceSchemaLocation="http://sumo.dlr.de/xsd/tripinfo_file.xsd">
    <tripinfo id="C7726411.0" depart="18470.00" departLane="-25406389#5_0" departPos="12.10" departSpeed="0.00" departDelay="0.00" arrival="24613.00" arrivalLane="44418919_0" arrivalPos="60.15" arrivalSpeed="5.56" duration="6143.00" routeLength="7333.92" waitingTime="4887.00" waitingCount="45" stopTime="199.00" timeLoss="5317.56" rerouteNo="0" devices="tripinfo_C7726411.0 emissions_C7726411.0" vType="bus" speedFactor="1.00" vaporized="">
        <emissions CO_abs="126115.7930" CO2_abs="39529646.3368" HC_abs="29778.3034" PMx_abs="12679.9599" NOx_abs="412753.2327" fuel_abs="12500174.7617" electricity_abs="0" />
    </tripinfo>
    <tripinfo id="C74509135.0" depart="24890.00" departLane="1176083116_0" departPos="12.10" departSpeed="0.00" departDelay="0.00" arrival="25850.00" arrivalLane="26641606#6_0" arrivalPos="114.39" arrivalSpeed="0.98" duration="960.00" routeLength="4928.07" waitingTime="117.00" waitingCount="9" stopTime="275.00" timeLoss="302.39" rerouteNo="0" devices="tripinfo_C74509135.0 emissions_C74509135.0" vType="bus" speedFactor="1.00" vaporized="">
        <emissions CO_abs="20895.9296" CO2_abs="9728200.0061" HC_abs="4604.0911" PMx_abs="2163.8081" NOx_abs="84608.2629" fuel_abs="3077696.4867" electricity_abs="0" />
    </tripinfo>
    <tripinfo id="C76796171.0" depart="26450.00" departLane="127553879_0" departPos="12.10" departSpeed="0.00" departDelay="0.00" arrival="26810.00" arrivalLane="-407478193_0" arrivalPos="155.62" arrivalSpeed="1.01" duration="360.00" routeLength="1736.96" waitingTime="47.00" waitingCount="6" stopTime="82.00" timeLoss="145.72" rerouteNo="0" devices="tripinfo_C76796171.0 emissions_C76796171.0" vType="bus" speedFactor="1.00" vaporized="">
        <emissions CO_abs="8560.6611" CO2_abs="4109406.0428" HC_abs="1869.6918" PMx_abs="888.6879" NOx_abs="35299.4063" fuel_abs="1300121.1753" electricity_abs="0" />
    </tripinfo>
    <tripinfo id="C76796102.0" depart="27290.00" departLane="-407478193_0" departPos="12.10" departSpeed="0.00" departDelay="0.00" arrival="27774.00" arrivalLane="127553879_0" arrivalPos="21.94" arrivalSpeed="4.04" duration="484.00" routeLength="1974.86" waitingTime="18.00" waitingCount="5" stopTime="230.00" timeLoss="105.19" rerouteNo="0" devices="tripinfo_C76796102.0 emissions_C76796102.0" vType="bus" speedFactor="1.00" vaporized="">
        <emissions CO_abs="11182.6018" CO2_abs="4996870.8811" HC_abs="2483.9244" PMx_abs="1153.7280" NOx_abs="44213.0768" fuel_abs="1580788.5944" electricity_abs="0" />
    </tripinfo>
    <tripinfo id="C74509106.0" depart="26870.00" departLane="-26641606#6_0" departPos="12.10" departSpeed="0.00" departDelay="0.00" arrival="27837.00" arrivalLane="879958382_0" arrivalPos="47.24" arrivalSpeed="6.45" duration="967.00" routeLength="4872.93" waitingTime="73.00" waitingCount="9" stopTime="321.00" timeLoss="278.37" rerouteNo="0" devices="tripinfo_C74509106.0 emissions_C74509106.0" vType="bus" speedFactor="1.00" vaporized="">
        <emissions CO_abs="22078.3111" CO2_abs="10139107.9724" HC_abs="4998.2700" PMx_abs="2291.0996" NOx_abs="88526.5582" fuel_abs="3207744.7044" electricity_abs="0" />
    </tripinfo>
    <tripinfo id="C76796110.0" depart="27650.00" departLane="-407478193_0" departPos="12.10" departSpeed="0.00" departDelay="0.00" arrival="28496.00" arrivalLane="879958382_0" arrivalPos="47.24" arrivalSpeed="6.42" duration="846.00" routeLength="4641.41" waitingTime="37.00" waitingCount="8" stopTime="294.00" timeLoss="203.53" rerouteNo="0" devices="tripinfo_C76796110.0 emissions_C76796110.0" vType="bus" speedFactor="1.00" vaporized="">
        <emissions CO_abs="19715.7587" CO2_abs="9355365.8130" HC_abs="4427.3354" PMx_abs="2051.6253" NOx_abs="80604.5154" fuel_abs="2959875.6120" electricity_abs="0" />
    </tripinfo>
    <tripinfo id="C74509124.0" depart="27710.00" departLane="-26641606#6_0" departPos="12.10" departSpeed="0.00" departDelay="0.00" arrival="28676.00" arrivalLane="879958382_0" arrivalPos="47.24" arrivalSpeed="6.47" duration="966.00" routeLength="4872.93" waitingTime="64.00" waitingCount="11" stopTime="332.00" timeLoss="266.67" rerouteNo="0" devices="tripinfo_C74509124.0 emissions_C74509124.0" vType="bus" speedFactor="1.00" vaporized="">
        <emissions CO_abs="22249.4883" CO2_abs="10291972.8531" HC_abs="5014.4210" PMx_abs="2309.4235" NOx_abs="89619.5978" fuel_abs="3256119.0483" electricity_abs="0" />
    </tripinfo>
</tripinfos>