<tripinfos xmlns:xsi="http://www.w3.org/2001/XMLSchema-instance" xsi:noNamespaceSchemaLocation="http://sumo.dlr.de/xsd/tripinfo_file.xsd">
    <tripinfo id="C6305319.0" depart="9350.00" departLane="34572881#1_0" departPos="12.10" departSpeed="0.00" departDelay="0.00" arrival="9920.00" arrivalLane="-50219636#1_0" arrivalPos="56.74" arrivalSpeed="8.37" duration="570.00" routeLength="1866.71" waitingTime="280.00" waitingCount="8" stopTime="40.00" timeLoss="387.02" rerouteNo="0" devices="tripinfo_C6305319.0 battery_C6305319.0" vType="bus" speedFactor="1.00" vaporized="" />
    <tripinfo id="C76796159.0" depart="25250.00" departLane="127553879_0" departPos="12.10" departSpeed="0.00" departDelay="0.00" arrival="25361.00" arrivalLane="63682647_0" arrivalPos="126.86" arrivalSpeed="1.06" duration="111.00" routeLength="333.14" waitingTime="42.00" waitingCount="2" stopTime="20.00" timeLoss="66.26" rerouteNo="0" devices="tripinfo_C76796159.0 battery_C76796159.0" vType="bus" speedFactor="1.00" vaporized="" />
</tripinfos>